                         Program Version 5.0.3 -  RELEASE  -
|  1> # avogadro generated ORCA file
|  2> #
|  3> !B3LYP DEF2-TZVP CPCM(HEXANE)
|  4> %TDDFT
|  5>    NROOTS 30
|  6> END
|  7>
|  8> * xyz 0 5
|  9>    C     -0.016700    1.378100    0.009600
| 10>    C      0.002100   -0.004100    0.002000
| 11>    C      1.170900    2.085500    0.002100
| 12>    C      1.208400   -0.678900   -0.013200
| 13>    C      2.396000    0.028500   -0.021200
| 14>    C      2.377300    1.410700   -0.013100
| 15>    H     -0.959200    1.905400    0.017000
| 16>    H     -0.925800   -0.556700    0.008300
| 17>    H      1.156300    3.165400    0.007700
| 18>    H      1.223100   -1.758800   -0.018400
| 19>    H      3.338500   -0.498700   -0.032400
| 20>    H      3.305100    1.963400   -0.019700
| 21> *
| 22>
| 23>
| 24>
| 25>                          ****END OF INPUT****

CARTESIAN COORDINATES (ANGSTROEM)
---------------------------------
  C     -0.016700    1.378100    0.009600
  C      0.002100   -0.004100    0.002000
  C      1.170900    2.085500    0.002100
  C      1.208400   -0.678900   -0.013200
  C      2.396000    0.028500   -0.021200
  C      2.377300    1.410700   -0.013100
  H     -0.959200    1.905400    0.017000
  H     -0.925800   -0.556700    0.008300
  H      1.156300    3.165400    0.007700
  H      1.223100   -1.758800   -0.018400
  H      3.338500   -0.498700   -0.032400
  H      3.305100    1.963400   -0.019700

 Total Charge           Charge          ....    0
 Multiplicity           Mult            ....    5
 Number of Electrons    NEL             ....   42
 Basis Dimension        Dim             ....  222

ORBITAL ENERGIES
----------------
                 SPIN UP ORBITALS
  NO   OCC          E(Eh)            E(eV)
   0   1.0000     -10.172371      -276.8043
   1   1.0000     -10.172127      -276.7977
   2   1.0000     -10.172126      -276.7976
   3   1.0000     -10.171525      -276.7813
   4   1.0000     -10.171524      -276.7812
   5   1.0000     -10.171222      -276.7730
   6   1.0000      -0.883294       -24.0356
   7   1.0000      -0.769642       -20.9430
   8   1.0000      -0.769631       -20.9427
   9   1.0000      -0.619082       -16.8461
  10   1.0000      -0.619076       -16.8459
  11   1.0000      -0.533815       -14.5258
  12   1.0000      -0.465050       -12.6547
  13   1.0000      -0.461764       -12.5652
  14   1.0000      -0.429796       -11.6953
  15   1.0000      -0.429792       -11.6952
  16   1.0000      -0.420113       -11.4319
  17   1.0000      -0.350232        -9.5303
  18   1.0000      -0.350229        -9.5302
  19   1.0000      -0.311316        -8.4713
  20   1.0000      -0.311314        -8.4713
  21   1.0000      -0.099001        -2.6940
  22   1.0000      -0.098994        -2.6938
  23   0.0000       0.049654         1.3512
  24   0.0000       0.083065         2.2603
  25   0.0000       0.083085         2.2608
  26   0.0000       0.092742         2.5236
  27   0.0000       0.109487         2.9793

                 SPIN DOWN ORBITALS
  NO   OCC          E(Eh)            E(eV)
   0   1.0000     -10.162470      -276.5349
   1   1.0000     -10.162220      -276.5281
   2   1.0000     -10.162219      -276.5280
   3   1.0000     -10.161629      -276.5120
   4   1.0000     -10.161628      -276.5120
   5   1.0000     -10.161344      -276.5042
   6   1.0000      -0.849452       -23.1148
   7   1.0000      -0.732957       -19.9448
   8   1.0000      -0.732944       -19.9444
   9   1.0000      -0.591342       -16.0912
  10   1.0000      -0.591336       -16.0911
  11   1.0000      -0.524259       -14.2658
  12   1.0000      -0.447286       -12.1713
  13   1.0000      -0.445695       -12.1280
  14   1.0000      -0.420605       -11.4452
  15   1.0000      -0.420600       -11.4451
  16   1.0000      -0.340179        -9.2567
  17   1.0000      -0.340176        -9.2567
  18   1.0000      -0.321727        -8.7546
  19   0.0000      -0.167944        -4.5700
  20   0.0000      -0.167941        -4.5699
  21   0.0000       0.034410         0.9363
  22   0.0000       0.034413         0.9364
  23   0.0000       0.053245         1.4489

MULLIKEN ATOMIC CHARGES AND SPIN POPULATIONS
--------------------------------------------
   0 C :   -0.129533    0.705817
   1 C :   -0.129646    0.705706
   2 C :   -0.129658    0.705548
   3 C :   -0.129652    0.705410
   4 C :   -0.129494    0.705808
   5 C :   -0.129702    0.705863
   6 H :    0.129643   -0.039014
   7 H :    0.129646   -0.039022
   8 H :    0.129531   -0.039036
   9 H :    0.129527   -0.039033
  10 H :    0.129667   -0.039021
  11 H :    0.129672   -0.039024
Sum of atomic charges         :    0.0000000

LOEWDIN ATOMIC CHARGES AND SPIN POPULATIONS
-------------------------------------------
   0 C :   -0.143857    0.665622
   1 C :   -0.143863    0.665556
   2 C :   -0.143866    0.665672
   3 C :   -0.143871    0.665549
   4 C :   -0.143856    0.665617
   5 C :   -0.143845    0.665675
   6 H :    0.143866    0.001051
   7 H :    0.143868    0.001051
   8 H :    0.143849    0.001050
   9 H :    0.143859    0.001050
  10 H :    0.143861    0.001052
  11 H :    0.143855    0.001054

  Mayer bond orders larger than 0.100000
B(  0-C ,  1-C ) :   1.0890 B(  0-C ,  2-C ) :   1.0888 B(  0-C ,  4-C ) :   0.1063
B(  0-C ,  6-H ) :   0.9710 B(  1-C ,  3-C ) :   1.0890 B(  1-C ,  5-C ) :   0.1063
B(  1-C ,  7-H ) :   0.9709 B(  2-C ,  3-C ) :   0.1062 B(  2-C ,  5-C ) :   1.0889
B(  2-C ,  8-H ) :   0.9709 B(  3-C ,  4-C ) :   1.0890 B(  3-C ,  9-H ) :   0.9709
B(  4-C ,  5-C ) :   1.0891 B(  4-C , 10-H ) :   0.9709 B(  5-C , 11-H ) :   0.9709

-----------------------------------------------------------------------------
         ABSORPTION SPECTRUM VIA TRANSITION ELECTRIC DIPOLE MOMENTS
-----------------------------------------------------------------------------
State   Energy    Wavelength  fosc         T2        TX        TY        TZ
        (cm-1)      (nm)                 (au**2)    (au)      (au)      (au)
-----------------------------------------------------------------------------
   1   22168.1    451.1   0.015645748   0.23235  -0.18395  -0.44555  -0.00064
   2   22169.6    451.1   0.015605129   0.23173   0.44470  -0.18425  -0.00542
   3   24166.2    413.8   0.000001380   0.00002  -0.00433   0.00012  -0.00001
   4   24170.9    413.7   0.000001001   0.00001   0.00082  -0.00350  -0.00086
   5   25223.1    396.5   0.000000051   0.00000   0.00063  -0.00051  -0.00002
   6   25384.1    393.9   0.000000048   0.00000  -0.00053  -0.00059  -0.00000
   7   25392.8    393.8   0.000000029   0.00000  -0.00028   0.00054   0.00000
   8   25597.8    390.7   0.000000082   0.00000  -0.00064  -0.00081   0.00000
   9   31374.2    318.7   0.000000446   0.00000   0.00169  -0.00135  -0.00002
  10   31979.5    312.7   0.000000290   0.00000  -0.00153  -0.00081  -0.00002
  11   31983.6    312.7   0.000000478   0.00000   0.00163  -0.00151  -0.00003
  12   32609.1    306.7   0.000000006   0.00000   0.00016   0.00019   0.00004
  13   37498.2    266.7   0.010593303   0.09300  -0.00475   0.00360  -0.30491
  14   37818.1    264.4   0.000000226   0.00000  -0.00118   0.00064  -0.00040
  15   37837.9    264.3   0.000013214   0.00011  -0.00037  -0.00037   0.01071
  16   38063.0    262.7   0.000000085   0.00000   0.00066   0.00051   0.00022
  17   41255.1    242.4   0.000094777   0.00076   0.00113  -0.02741   0.00198
  18   41291.6    242.2   0.000100792   0.00080   0.02825   0.00241  -0.00007
  19   41603.4    240.4   0.003755551   0.02972  -0.00355   0.00832   0.17215
  20   42563.5    234.9   0.670849839   5.18876  -0.04886  -2.27733  -0.01205
  21   42589.0    234.8   0.674148282   5.21115   2.28196  -0.05749  -0.02262
  22   42675.9    234.3   0.008738777   0.06741   0.16480   0.20064   0.00038
  23   42679.0    234.3   0.003536186   0.02728   0.09571  -0.13458  -0.00183
  24   43681.9    228.9   0.000030226   0.00023  -0.01493   0.00221   0.00012
  25   43683.0    228.9   0.000016244   0.00012  -0.00232   0.01082   0.00008
  26   44610.4    224.2   0.000001752   0.00001  -0.00270  -0.00237   0.00001
  27   47155.0    212.1   0.000006124   0.00004  -0.00264  -0.00598   0.00020
  28   47157.9    212.1   0.000001759   0.00001   0.00016   0.00350  -0.00001
  29   50640.9    197.5   0.000001667   0.00001  -0.00164   0.00285   0.00003
  30   50644.6    197.5   0.000003855   0.00003  -0.00267  -0.00422  -0.00025

FINAL SINGLE POINT ENERGY      -231.766395395754

DIPOLE MOMENT
-------------
                                X             Y             Z
Electronic contribution:     -0.00000      -0.00017       0.00206
Nuclear contribution   :     -0.00000       0.00017      -0.00320
                        -----------------------------------------
Total Dipole Moment    :     -0.00000       0.00000      -0.00114
                        -----------------------------------------
Magnitude (a.u.)       :      0.00114
Magnitude (Debye)      :      0.00290

Rotational constants in cm-1:     0.193347     0.193343     0.096673
Rotational constants in MHz :  5796.387657  5796.286947  2898.169404

                             ****ORCA TERMINATED NORMALLY****
TOTAL RUN TIME: 0 days 0 hours 2 minutes 27 seconds 807 msec
